# vtk DataFile Version 3.0
vtk output at time 1
ASCII
DATASET UNSTRUCTURED_GRID
POINTS 1111 float
77.8839 63.6337 45.8702 76.7734 63.759 46.9146 76.4961 65.017 46.4062 
77.5713 64.9304 45.3486 76.0206 63.9235 48.2029 75.6093 65.0025 47.6564 
75.6452 63.8107 49.6987 74.9595 65.0521 49.1283 75.5547 63.9722 51.2049 
74.5729 65.1463 50.8436 75.2758 63.9658 52.8335 74.5792 65.2273 52.7289 
75.4898 63.8857 54.4804 74.7236 65.1051 54.5471 76.1752 63.9015 55.919 
75.2657 65.0561 56.1947 77.0412 63.9893 57.0699 76.0066 65.0415 57.752 
77.6877 64.0777 58.4414 76.852 65.0964 59.1481 78.5379 64.1159 59.7098 
77.8478 65.205 60.4408 79.525 64.2091 60.8641 78.974 65.2948 61.5801 
80.7736 64.2175 61.7296 80.2737 65.3571 62.5313 82.1073 64.2364 62.4799 
81.7745 65.4672 63.2689 83.6534 64.3572 62.7147 83.3954 65.582 63.6903 
85.1721 64.4241 62.8511 85.0499 65.7035 63.8324 86.7006 64.4229 62.9049 
86.6731 65.8212 63.8188 88.2684 64.5829 63.0764 88.2729 65.9404 63.6385 
89.7748 64.6875 62.714 89.8291 66.0639 63.2001 91.27 64.7385 62.2616 
91.3265 66.1226 62.5606 92.6478 64.6484 61.6757 92.7699 66.0623 61.9272 
93.8831 64.7106 60.7758 94.0556 66.0755 60.9423 94.9785 64.6353 59.7179 
95.2386 66.0941 59.8059 95.8368 64.5647 58.4773 96.1908 66.1206 58.5316 
96.4268 64.537 57.0738 96.9307 66.1501 57.0065 96.7703 64.5213 55.5886 
97.2752 65.8666 55.4502 96.4966 64.0951 54.1452 97.1687 65.4959 53.9513 
96.1101 63.7803 52.7019 96.8137 65.1457 52.3566 95.5497 63.5397 51.3066 
96.2577 64.8577 50.8142 94.8392 63.3443 49.9669 95.556 64.6275 49.3515 
94.0598 63.177 48.6619 94.7232 64.4451 47.9803 93.1431 63.0957 47.4402 
93.7701 64.3006 46.7266 92.0121 62.9745 46.4316 92.6264 64.1947 45.646 
90.7447 62.9176 45.5905 91.3469 64.1213 44.6988 89.3837 62.9462 44.8989 
89.9147 64.1471 43.9682 87.945 62.9888 44.3812 88.4135 64.1926 43.3813 
86.4665 63.1259 44.0154 86.8367 64.3138 42.9995 84.9558 63.1931 43.8002 
85.1801 64.4662 42.8303 83.4337 63.2936 43.7531 83.474 64.5662 42.8252 
81.925 63.4296 43.9174 81.7851 64.6859 43.1202 80.4526 63.5044 44.2982 
80.1929 64.7429 43.6533 79.0664 63.5036 44.9087 78.7529 64.782 44.3517 
78.3946 88.9982 37.7394 79.948 88.9803 37.5528 79.7943 87.2523 36.909 
78.1512 87.2811 37.1358 81.4998 88.9571 37.4729 81.4665 87.2682 36.791 
83.0469 88.9184 37.7034 83.1338 87.244 36.8794 84.5985 88.8875 37.8992 
84.7659 87.2523 37.0451 86.1542 88.8634 38.0645 86.3764 87.2964 37.2819 
87.6592 88.8895 38.4873 87.9574 87.3394 37.7238 89.1309 88.9534 39.002 
89.5083 87.4247 38.2843 90.5536 89.0734 39.6421 90.9997 87.5359 38.988 
91.848 89.2004 40.5059 92.3793 87.6363 39.9084 92.9939 89.3144 41.5394 
93.6606 87.7549 40.9321 93.9408 89.4067 42.7815 94.7693 87.8025 42.0877 
94.9115 89.5387 44.0015 95.8718 87.9838 43.2651 95.8829 89.6707 45.2209 
96.8857 88.1407 44.5255 96.8276 89.7926 46.4572 97.7968 88.2797 45.9127 
97.4338 89.8197 47.8993 98.4577 88.2405 47.4725 97.9775 89.8442 49.3654 
99.0237 88.2628 49.1206 98.4358 89.8804 50.8563 99.4308 88.4115 50.7744 
98.6402 89.9837 52.4041 99.6217 88.5943 52.4108 98.5015 90.0365 53.9427 
99.5174 88.69 54.0478 98.1439 90.0629 55.4603 99.1495 88.7163 55.6218 
97.4974 90.079 56.8851 98.5203 88.6718 57.1448 96.7051 90.0875 58.2286 
97.7807 88.6517 58.629 95.8219 90.0963 59.5196 96.967 88.5664 60.1162 
94.8675 90.132 60.759 96.0352 88.2253 62.0279 94.1018 90.006 62.4021 
94.5629 88.7412 63.1149 93.0169 90.0345 63.4979 93.3976 88.7967 64.1857 
91.4326 90.1262 63.8865 92.046 88.7268 65.0389 90.0234 90.1031 64.5279 
90.6199 88.6695 65.6912 88.5092 90.1061 64.922 89.1057 88.6536 66.2538 
87.0045 90.0971 65.3503 87.4825 88.594 66.7468 85.4666 89.7294 66.2053 
85.7822 88.5019 67.1105 83.9426 89.6844 66.3403 84.0121 88.4997 67.3316 
82.3813 90.0875 66.01 82.1869 88.5425 67.3275 80.8173 90.1313 65.9959 
80.5779 88.8225 67.0773 79.4736 90.0943 65.2592 79.173 88.7589 66.3309 
78.1865 90.0499 64.3736 77.7173 88.7224 65.4157 76.9949 90.0378 63.3596 
76.3367 88.6461 64.3896 75.7893 89.9838 62.3647 75.0281 88.522 63.3146 
74.5725 89.8963 61.385 73.7676 88.3547 62.2055 73.3985 89.8067 60.3545 
72.5606 88.2029 61.0717 72.3441 89.6736 59.2243 71.5286 88.0299 59.8639 
71.4779 89.4719 57.937 70.6399 87.859 58.5299 70.7971 89.2324 56.555 
69.9172 87.6794 57.0728 70.1923 88.9996 55.1339 69.2704 87.5721 55.5742 
69.6567 89.1609 53.6727 68.6981 87.5809 54.0131 69.1656 89.2547 52.1951 
68.1967 87.6227 52.3974 68.7717 89.2013 50.6817 67.8834 87.6135 50.8028 
68.7499 89.1608 49.1548 67.9121 87.5496 49.1856 69.035 89.131 47.6166 
68.1913 87.5188 47.5837 69.5497 89.0758 46.1451 68.7339 87.4637 46.006 
70.1407 89.0147 44.7012 69.3826 87.4672 44.4471 71.155 88.9677 43.5108 
70.373 87.3782 43.0996 72.1711 88.9347 42.3216 71.4296 87.3354 41.7865 
73.1924 88.9406 41.1362 72.5754 87.3026 40.5705 74.3485 88.955 40.1021 
73.8391 87.2612 39.4736 75.6418 88.978 39.2218 75.1538 87.2501 38.4952 
77.005 88.9901 38.4584 76.6248 87.2258 37.7593 75.1278 66.1603 46.9549 
76.1501 66.2288 45.8243 74.249 66.2214 48.4092 73.5008 66.5877 50.4147 
73.5643 66.3592 52.818 73.8208 66.2458 54.7636 74.3774 66.2247 56.5511 
75.1395 66.2492 58.2079 76.0789 66.3018 59.7393 77.16 66.3926 61.1209 
78.4002 66.5313 62.2916 79.7873 66.6664 63.2779 81.4035 66.84 64.0619 
83.1669 67.0044 64.5703 84.9614 67.0972 64.7321 86.7271 67.1764 64.6701 
88.4235 67.2266 64.4477 90.0247 67.2926 63.9893 91.5712 67.3332 63.3466 
93.0594 67.3457 62.5587 94.4609 67.3822 61.5387 95.7374 67.4217 60.3581 
96.9148 67.5033 59.0162 97.9771 67.8473 57.1548 98.0269 67.3096 55.2078 
97.8431 66.8832 53.5464 97.4685 66.5318 51.9118 96.9017 66.2458 50.3113 
96.1733 66.0198 48.7989 95.295 65.8359 47.3903 94.3239 65.6662 46.1005 
93.1526 65.5635 44.9873 91.8279 65.4946 43.9964 90.3686 65.4875 43.1879 
88.8129 65.5379 42.5541 87.1488 65.6929 42.1408 85.4042 65.9145 41.9827 
83.5148 66.1016 41.9918 81.6544 66.1307 42.522 79.9123 66.1005 43.2072 
78.431 66.0577 43.8803 77.1781 66.1259 44.7811 81.3942 85.5786 36.184 
79.6374 85.5626 36.3186 83.1345 85.5652 36.2432 84.8467 85.5539 36.4721 
86.5157 85.5763 36.8295 88.1773 85.6451 37.2758 89.8268 85.7408 37.8636 
91.405 85.8554 38.6112 92.8506 85.9631 39.5664 94.2564 86.1085 40.5648 
95.58 86.3011 41.5667 96.7776 86.5042 42.7179 97.8976 86.7493 43.9691 
98.8324 86.8859 45.4164 99.5587 86.8748 47.0672 100.174 86.8496 48.9001 
100.538 87.0856 50.7425 100.635 87.2626 52.4629 100.468 87.3449 54.172 
100.076 87.3524 55.7744 99.4849 87.3383 57.3215 98.8117 87.3232 58.7964 
98.0295 87.0545 60.1947 97.2613 86.4747 61.7636 93.8797 87.5195 64.8209 
94.6994 87.7209 63.8852 92.5993 87.3198 65.7855 91.1421 87.2545 66.6901 
89.5704 87.2818 67.3756 87.8984 87.348 67.9436 86.1672 87.3903 68.3198 
84.3229 87.3683 68.6154 82.113 87.1413 68.8966 80.1131 87.5204 68.1758 
78.6028 87.518 67.3438 77.1228 87.447 66.4434 75.6988 87.2715 65.3833 
74.3263 87.1147 64.2622 73.0679 86.8648 63.0297 71.873 86.6639 61.8111 
70.8819 86.4565 60.5206 70.0006 86.2895 59.1355 69.2684 86.1376 57.571 
68.6376 86.0264 55.9028 67.9974 86.0081 54.2259 67.505 86.0004 52.5129 
67.1086 86.0433 50.8989 67.0979 86.008 49.1565 67.4159 85.9567 47.5093 
68.0232 85.8849 45.8743 68.7634 85.8492 44.2669 69.7432 85.7822 42.8151 
70.8014 85.7477 41.4084 71.9634 85.7064 40.1171 73.3056 85.6147 38.983 
74.6933 85.5336 37.9768 76.2593 85.4676 37.2087 77.9131 85.544 36.5797 
95.6277 86.8659 63.6196 96.654 85.5682 63.3114 72.6808 67.5475 53.2687 
72.4745 67.8228 51.4168 73.0172 67.4507 55.128 73.5864 67.4467 56.9262 
74.4314 67.5268 58.5871 75.4712 67.6418 60.1291 76.6121 67.7551 61.5546 
77.8839 67.9011 62.7982 79.3021 68.0728 63.8798 80.9585 68.2881 64.7386 
82.9204 68.5166 65.4183 84.9703 68.5063 65.6175 86.8179 68.5206 65.5302 
88.5878 68.5175 65.2784 90.2497 68.5049 64.8323 91.8644 68.4957 64.1923 
93.442 68.4687 63.4012 94.9348 68.4805 62.3987 96.2879 68.5543 61.1973 
97.4957 68.7339 59.9657 98.4818 69.3413 58.541 98.4587 68.2693 52.9435 
98.7248 68.7243 54.5179 98.0362 67.9131 51.3149 97.4336 67.6396 49.7364 
96.6622 67.4329 48.2518 95.7687 67.2442 46.8444 94.7685 67.0724 45.545 
93.6171 66.9398 44.3825 92.292 66.8502 43.3635 90.8248 66.8241 42.5113 
89.2471 66.8728 41.8318 87.6015 67.0227 41.328 85.7828 67.3 40.9851 
83.4979 67.7286 40.6463 81.2202 67.4013 41.4553 79.3497 67.0859 42.188 
77.8432 66.9813 43.0284 76.6411 67.0108 43.9815 75.6837 67.2222 45.0617 
74.6521 67.2648 46.2071 98.9723 69.367 56.0648 99.2975 70.3282 57.3549 
94.6838 86.2026 65.0069 95.6837 84.6501 64.8169 93.3219 85.7719 66.383 
91.6552 85.7837 67.5307 89.9914 85.8667 68.3329 88.3069 86.0479 68.9677 
86.6257 86.1788 69.3889 84.9447 86.1952 69.7316 83.3464 85.9027 70.1522 
77.8981 86.2964 68.2885 79.3307 86.2598 69.097 76.4151 86.2198 67.3935 
74.9569 86.0868 66.3819 73.6734 85.7628 65.1456 72.446 85.4403 63.817 
71.3326 85.1654 62.4917 70.4002 84.9376 61.1397 69.5426 84.7406 59.6944 
68.9087 84.5172 57.9755 68.2915 84.4033 56.1644 67.6695 84.3743 54.3577 
67.1316 84.3654 52.5936 66.6018 84.3676 50.9766 66.6158 84.3249 49.1592 
66.9315 84.3103 47.4907 67.569 84.2571 45.8167 68.3168 84.2228 44.1615 
69.2451 84.1832 42.6283 70.3211 84.1462 41.1995 71.4998 84.0938 39.8585 
72.8746 83.9608 38.6662 74.2696 83.8258 37.5948 75.9577 83.6696 36.7262 
77.7954 83.8195 36.0497 79.5799 83.8951 35.7881 81.4007 83.9223 35.6797 
83.1834 83.9076 35.7752 84.9371 83.8974 36.0021 86.6658 83.9108 36.3684 
88.4083 83.9753 36.8155 90.1518 84.0646 37.4075 91.816 84.1738 38.2045 
93.4021 84.3314 39.0895 94.8926 84.5207 40.0899 96.2847 84.7689 41.1132 
97.5362 85.0222 42.2564 98.722 85.3175 43.4767 99.6798 85.4802 44.9165 
100.506 85.4466 46.6283 101.303 85.0894 48.7198 101.501 85.6428 50.8697 
101.389 85.8268 52.6795 101.216 85.9274 54.3829 100.847 85.9756 55.9811 
100.238 85.9821 57.4994 99.6302 86.0281 58.9118 98.8685 85.8002 60.0917 
98.2933 85.149 61.3333 97.6802 84.2406 62.6281 96.7905 83.1888 63.9743 
94.0749 83.572 66.6305 95.7065 81.9592 65.3076 80.8126 85.8916 69.8957 
82.0541 85.0266 70.6063 99.7147 70.612 55.0906 100.044 71.3685 56.3427 
[...]
POINT_DATA 1111
VECTORS displacement float
0 0 0
0 0 0
-0.156271 0.0926015 -0.138458
-0.182712 0.07726 -0.168619
-0.0320782 0.180934 -0.0387551
-0.200423 0.0120497 -0.146384
0 0 0
-0.381468 -0.122621 -0.127843
0 0 0
-0.658911 -0.288008 -0.0457385
-0.430636 -0.131503 0.115837
-0.90633 -0.290128 0.135173
-0.447407 -0.130188 0.252801
-0.989038 -0.330698 0.336075
-0.332 -0.0199409 0.275871
-0.880264 -0.326067 0.483244
0 0 0
-0.698551 -0.355737 0.561599
0 0 0
-0.514579 -0.329467 0.531551
0 0 0
-0.400036 -0.274015 0.524907
0 0 0
-0.344054 -0.261052 0.523693
0 0 0
-0.319968 -0.271828 0.579303
-0.0869497 -0.0599634 0.189535
-0.236441 -0.250858 0.646584
0 0 0
-0.136251 -0.234176 0.691378
0 0 0
-0.0431191 -0.156449 0.667834
0 0 0
0.0172872 -0.0488813 0.660174
0.0568517 0.167401 0.318358
0.0790259 0.08328 0.623181
0.0848636 0.226464 0.338087
0.157104 0.161966 0.587236
0.101097 0.18744 0.256071
0.219281 0.153344 0.484002
0 0 0
0.252073 0.0748836 0.37971
0 0 0
0.265978 0.0515544 0.26343
0 0 0
0.282554 0.0583616 0.144428
0 0 0
0.269524 0.0790567 0.0572268
0 0 0
0.265068 0.0736913 0.0149869
0 0 0
0.290807 0.00126307 0.0639028
0 0 0
0.433785 -0.0757506 0.0580325
0 0 0
0.581097 -0.150531 -0.0901404
0 0 0
0.648829 -0.202915 -0.251942
0 0 0
0.655541 -0.237549 -0.387297
0 0 0
0.616597 -0.254555 -0.48265
0 0 0
0.573774 -0.275053 -0.547372
0 0 0
0.526529 -0.282213 -0.604008
0 0 0
0.465198 -0.304345 -0.661702
0 0 0
0.398977 -0.296778 -0.716932
0 0 0
0.324452 -0.310444 -0.743325
0 0 0
0.258978 -0.320391 -0.778835
0 0 0
0.161536 -0.314608 -0.792665
0 0 0
0.0269453 -0.304785 -0.735781
0 0 0
-0.100601 -0.235643 -0.611432
0 0 0
-0.18012 -0.132625 -0.431468
0 0 0
-0.198846 -0.0271223 -0.266683
0 0 0
0 0 0
-0.13817 -0.141835 -0.890126
-0.223104 -0.0960349 -0.754696
0 0 0
-0.0210283 -0.130978 -0.979278
0 0 0
0.0916129 -0.149657 -1.05106
0 0 0
0.176204 -0.12821 -1.08161
0 0 0
0.249494 -0.0724766 -1.09195
0 0 0
0.334562 -0.0619711 -1.09804
0 0 0
0.422628 -0.0354253 -1.07236
0 0 0
0.501342 -0.0153072 -1.01225
0 0 0
0.574649 -0.0310363 -0.920069
0 0 0
0.609183 -0.0293088 -0.799153
0 0 0
0.616408 -0.0844117 -0.718512
0 0 0
0.589966 -0.0682622 -0.609711
0 0 0
0.57201 -0.0549133 -0.524236
0 0 0
0.558734 -0.0191324 -0.420143
0 0 0
0.57511 -0.0363681 -0.327876
0 0 0
0.546845 -0.0402363 -0.195509
0 0 0
0.459665 -0.0478317 -0.0724145
0 0 0
0.373469 -0.0507604 -0.00919675
0 0 0
0.366169 -0.0495115 0.0325656
0 0 0
0.430644 -0.0345858 0.0977492
0 0 0
0.538897 -0.0277598 0.222081
0 0 0
0.642178 0.00906196 0.365508
0 0 0
0.771647 0.083859 0.544316
0 0 0
0.952763 0.145224 0.908848
0.257708 -0.148467 0.461884
0.669779 0.0557772 0.858837
0.24752 -0.132728 0.423546
0.509553 0.0679741 0.906051
0 0 0
0.391267 0.0880103 0.898493
0 0 0
0.314416 0.0450783 0.795226
0 0 0
0.256686 -0.00857554 0.734749
0 0 0
0.171005 -0.0697023 0.735643
-0.0286837 -0.35515 0.452879
0.0604063 -0.156636 0.696123
0.00209135 -0.387752 0.412209
-0.0862855 -0.167563 0.631087
0 0 0
-0.181292 -0.108361 0.530465
0 0 0
-0.101181 -0.00626216 0.430097
0 0 0
-0.132849 0.0299801 0.553427
0 0 0
-0.309604 0.0756119 0.619407
0 0 0
-0.481284 0.0837575 0.635914
0 0 0
-0.624758 0.0559314 0.628676
0 0 0
-0.741001 0.000303666 0.597398
0 0 0
-0.809185 -0.0540429 0.546172
0 0 0
-0.832916 -0.0912942 0.506748
0 0 0
-0.853093 -0.0942399 0.464903
0 0 0
-0.869603 -0.0838985 0.395341
0 0 0
-0.857498 -0.0599889 0.328252
0 0 0
-0.793227 -0.073626 0.22296
0 0 0
-0.700807 -0.0847927 0.0837708
0 0 0
-0.592802 -0.0975815 0.0123377
0 0 0
-0.531727 -0.117612 -0.0115013
0 0 0
-0.508681 -0.112752 -0.0425618
0 0 0
-0.505886 -0.10617 -0.112652
0 0 0
-0.475947 -0.0703379 -0.192569
0 0 0
-0.454492 -0.0980166 -0.283626
0 0 0
-0.40561 -0.109341 -0.36642
0 0 0
-0.356253 -0.123207 -0.433022
0 0 0
-0.299778 -0.139734 -0.504759
0 0 0
-0.271434 -0.132326 -0.558165
0 0 0
-0.259371 -0.132492 -0.650066
-0.307484 -0.0141422 -0.222823
-0.232887 0.123729 -0.199774
-0.546015 -0.21997 -0.222722
-0.993126 -0.449403 -0.0793528
-1.26882 -0.520524 0.197994
-1.35686 -0.548037 0.446266
-1.30306 -0.548008 0.670643
-1.12008 -0.525292 0.826067
-0.877875 -0.486492 0.896964
-0.667172 -0.428138 0.895674
-0.561628 -0.376871 0.887321
-0.507218 -0.354797 0.94275
-0.381722 -0.329774 1.03887
-0.20294 -0.268535 1.06922
-0.0510752 -0.173909 1.01624
0.0740189 -0.0604733 0.92308
0.157755 0.0333962 0.816697
0.210492 0.0838058 0.725942
0.272419 0.0710053 0.638304
0.339235 0.0298981 0.53171
0.409372 0.00640349 0.392788
0.443365 0.015133 0.210683
0.401231 0.0482915 0.0644095
0.37411 0.0511545 0.074724
0.511655 -0.0353297 0.144106
0.754841 -0.138095 0.0563753
0.944663 -0.218948 -0.159622
1.04301 -0.277117 -0.394596
1.06258 -0.315359 -0.604284
1.01617 -0.341018 -0.773636
0.947087 -0.368274 -0.883866
0.87886 -0.381724 -0.989821
0.776935 -0.402812 -1.0968
0.65585 -0.417577 -1.17427
0.532359 -0.434717 -1.22574
0.411926 -0.438188 -1.27698
0.255117 -0.422145 -1.29965
0.071052 -0.398672 -1.21708
-0.116411 -0.29416 -0.983289
-0.263195 -0.161828 -0.675929
-0.332973 -0.0255044 -0.394979
-0.290376 0.114609 -0.226933
-0.101018 -0.264781 -1.5198
-0.265035 -0.247454 -1.35569
0.0673904 -0.286711 -1.63748
0.237626 -0.295138 -1.71808
0.392911 -0.277518 -1.76887
0.554505 -0.239146 -1.78768
0.734171 -0.195159 -1.73617
0.877191 -0.162614 -1.61209
0.976357 -0.168424 -1.43979
1.03051 -0.150457 -1.21817
1.01504 -0.144744 -1.01403
0.971342 -0.137292 -0.846402
0.918958 -0.104913 -0.6994
0.884811 -0.0685973 -0.570299
0.872083 -0.0566338 -0.421307
0.817377 -0.0574695 -0.236403
0.692429 -0.0678366 -0.0815421
0.605105 -0.0739305 -0.013504
0.607911 -0.079337 0.042363
0.69113 -0.0782905 0.12091
0.823783 -0.0585831 0.257059
0.987489 -0.00363351 0.425295
1.16662 0.0517618 0.702533
1.31238 0.0789975 1.07304
0.767079 0.147481 1.29725
0.873106 0.127717 1.19537
0.587804 0.110852 1.3174
0.401095 0.0577383 1.23079
0.274419 -0.0212068 1.11314
0.154715 -0.0801539 1.00967
0.0294919 -0.0967479 0.902954
-0.0892416 -0.0939068 0.807776
-0.184958 -0.0722585 0.752
-0.162131 -0.0138893 0.739103
-0.247068 0.0417286 0.876701
-0.46332 0.0748482 0.984901
-0.709647 0.0600028 1.02776
-0.914083 0.020394 0.999412
-1.07668 -0.0742374 0.924787
-1.14862 -0.164652 0.833025
-1.16311 -0.209611 0.788755
-1.20922 -0.192559 0.750115
-1.28687 -0.158169 0.648068
-1.3169 -0.142281 0.480106
-1.24811 -0.139696 0.26958
-1.09482 -0.15917 0.0679854
-0.907513 -0.164488 -0.0383015
-0.789664 -0.179011 -0.0622602
-0.758342 -0.187026 -0.0877821
-0.75947 -0.184805 -0.168049
-0.737959 -0.174159 -0.285783
-0.695803 -0.192304 -0.408763
-0.624818 -0.204551 -0.51873
-0.554826 -0.217826 -0.607825
-0.48922 -0.240226 -0.70318
-0.468183 -0.248019 -0.803822
-0.450687 -0.24428 -0.970762
-0.385294 -0.224405 -1.15834
1.13093 0.127098 1.32636
1.39369 0.0994588 1.41825
-1.56754 -0.694404 0.308846
-1.40312 -0.652288 0.0843467
-1.63574 -0.717548 0.575032
-1.56898 -0.698967 0.826547
-1.39206 -0.641715 1.00797
-1.13593 -0.569389 1.11253
-0.873236 -0.49948 1.13668
-0.713303 -0.427716 1.12158
-0.635437 -0.381484 1.16168
-0.483022 -0.336999 1.25234
-0.246417 -0.262712 1.28388
-0.0310957 -0.164324 1.19475
0.115576 -0.0650835 1.05956
0.19688 0.00446743 0.914716
0.242268 0.0152416 0.806866
0.314715 -0.0207753 0.724222
0.409508 -0.0709347 0.621917
0.495722 -0.0995537 0.472584
0.535189 -0.0917875 0.273001
0.495132 -0.0567263 0.101907
0.437285 -0.0167657 0.0717094
0.991877 -0.179595 -0.0327627
0.756411 -0.0994879 0.115846
1.1787 -0.25564 -0.273005
1.2782 -0.310815 -0.529485
1.29857 -0.347896 -0.76015
1.25375 -0.380438 -0.955168
1.17643 -0.411212 -1.10312
1.0925 -0.440111 -1.23008
0.977484 -0.472291 -1.35511
0.835349 -0.49812 -1.45607
0.687241 -0.521673 -1.52684
0.531915 -0.532372 -1.58338
0.35094 -0.527855 -1.60487
0.101431 -0.533285 -1.52673
-0.164797 -0.415375 -1.15681
-0.352056 -0.25841 -0.745245
-0.396517 -0.0677955 -0.406975
-0.3132 0.0825147 -0.210896
-0.235396 0.0813423 -0.199769
-0.341592 -0.0585082 -0.224893
0.555803 -0.0316441 0.161404
0.479306 -0.0183233 0.132049
1.0335 0.147117 1.57199
1.32325 0.0972882 1.72241
0.771841 0.148139 1.65951
0.442978 0.100016 1.53297
0.218424 0.00382218 1.32353
0.083143 -0.0741886 1.1301
0.00156431 -0.0979939 1.00134
-0.0855894 -0.0871932 0.91123
-0.145633 -0.0673372 0.859097
-0.336198 -0.0018714 1.0632
-0.211431 -0.0300267 0.925499
-0.549723 0.0153231 1.1742
-0.787077 -0.00700987 1.22292
-1.01285 -0.0626493 1.19408
-1.18825 -0.166789 1.08644
-1.24884 -0.267752 0.989155
-1.26554 -0.278286 0.97629
-1.37596 -0.234096 0.955755
-1.54499 -0.226874 0.835241
-1.6228 -0.223577 0.607418
-1.54075 -0.21365 0.320701
-1.33133 -0.208683 0.0597363
-1.09571 -0.194719 -0.0867636
-0.924008 -0.214313 -0.103764
-0.864876 -0.235769 -0.111515
-0.8642 -0.248476 -0.180606
-0.839146 -0.253974 -0.309272
-0.781745 -0.267872 -0.431724
-0.709743 -0.279818 -0.539252
-0.635191 -0.29161 -0.640301
-0.561723 -0.31573 -0.74945
-0.551938 -0.336465 -0.859028
-0.552403 -0.348276 -1.07971
-0.476845 -0.34084 -1.34902
-0.332135 -0.361153 -1.59311
-0.142509 -0.389758 -1.79403
0.0528573 -0.414542 -1.94946
0.254547 -0.42102 -2.06716
0.4637 -0.408536 -2.16258
0.689215 -0.370522 -2.20375
0.930902 -0.327573 -2.14493
1.12199 -0.295056 -1.9746
1.24036 -0.26976 -1.7225
1.29018 -0.244157 -1.42075
1.25621 -0.221867 -1.12613
1.17174 -0.206887 -0.90071
1.0917 -0.173663 -0.735249
1.03797 -0.127533 -0.604801
1.00325 -0.100138 -0.439982
0.924162 -0.0956563 -0.225541
0.762831 -0.101195 -0.0660445
0.685593 -0.111305 -0.012126
0.689516 -0.114957 0.0493107
0.777918 -0.109094 0.109344
0.939209 -0.0804795 0.242669
1.13455 -0.0279615 0.411757
1.31879 0.00869758 0.679415
1.47899 0.0322588 1.00168
1.57624 0.0389282 1.33544
1.57297 0.0120214 1.67223
1.02726 0.0759489 1.95305
1.44512 -0.0443194 1.93306
-0.189092 -0.0552621 0.845296
-0.179594 -0.053889 0.862913
0.746071 -0.0633612 0.122929
0.594903 -0.0295918 0.156584
0.944234 -0.123915 0.0253023
1.14333 -0.192332 -0.143038
1.30081 -0.260439 -0.370295
1.38992 -0.31976 -0.609551
1.41134 -0.365899 -0.833268
1.37791 -0.402301 -1.03781
1.30649 -0.439109 -1.20867
1.22295 -0.477214 -1.35714
1.10486 -0.514468 -1.50728
0.955721 -0.555728 -1.62247
0.798151 -0.586756 -1.71048
0.60928 -0.601076 -1.77206
0.420892 -0.602165 -1.78628
0.211331 -0.597254 -1.74698
-0.440809 -0.293547 -0.68447
-0.302612 -0.452186 -1.10018
-0.439327 -0.100436 -0.343445
-0.312652 0.0251911 -0.186689
-0.240772 0.0105717 -0.176067
-0.337194 -0.118447 -0.224901
-1.82227 -0.789814 0.433615
-1.68019 -0.746136 0.215622
-1.87469 -0.803315 0.702491
-1.79049 -0.781185 0.952872
-1.60019 -0.714292 1.13226
-1.33956 -0.618577 1.23904
-1.05782 -0.523208 1.27348
-0.841821 -0.443452 1.26067
-0.719153 -0.381995 1.27443
-0.549202 -0.326257 1.34017
-0.251414 -0.229016 1.3604
0.0127483 -0.123136 1.23729
0.149873 -0.0437514 1.08504
0.20568 -0.0225915 0.948886
0.248532 -0.0662566 0.863009
0.342861 -0.143419 0.797839
0.467373 -0.213549 0.700368
0.571835 -0.252617 0.550525
0.623812 -0.239593 0.364659
0.605869 -0.197762 0.178088
0.542115 -0.146491 0.0763607
0.513531 -0.0981081 0.0707943
0.539893 -0.0783797 0.100424
0.690378 -0.0343511 0.126174
0.602959 -0.0658976 0.108366
0.852234 -0.0554892 0.0692669
-1.26247 -0.620042 -0.0679456
-1.53086 -0.686811 0.0624604
-1.19475 -0.587085 -0.150817
-1.41221 -0.638792 -0.0570593
-0.146017 -0.547668 -1.44072
-0.0163192 -0.577156 -1.66394
0.480681 0.0778408 1.77388
0.165603 0.0122842 1.47784
0.00270256 -0.0598881 1.21711
-0.0532282 -0.0960296 1.04375
-0.091772 -0.0903408 0.949111
-0.127122 -0.0721181 0.905933
-0.153586 -0.0543062 0.898087
-0.198064 -0.0473483 0.896667
-0.174002 -0.0487235 0.915865
-0.206355 -0.0566042 0.917354
-0.255303 -0.0646533 1.00943
-0.366979 -0.0720358 1.13733
-0.558057 -0.0799585 1.24021
-0.770244 -0.115128 1.29262
-0.975195 -0.174278 1.26983
-1.13497 -0.263279 1.16667
-1.18227 -0.32112 1.09676
-1.25674 -0.292633 1.13161
-1.47315 -0.264957 1.11805
-1.71334 -0.287922 0.968306
-1.82484 -0.308586 0.70358
-1.74536 -0.296097 0.375037
-1.50756 -0.267918 0.0781834
-1.23509 -0.231982 -0.097109
-1.01992 -0.236692 -0.128776
-0.919385 -0.257991 -0.136521
-0.893922 -0.282507 -0.186514
-0.852979 -0.299863 -0.302833
-0.785925 -0.316297 -0.412142
-0.717192 -0.333342 -0.50325
-0.651896 -0.348305 -0.596002
-0.584435 -0.370682 -0.695134
-0.575266 -0.39899 -0.797807
-0.595704 -0.442321 -1.03016
-0.507968 -0.442594 -1.38535
-0.360475 -0.464415 -1.6573
-0.175314 -0.488348 -1.86678
0.0213507 -0.508702 -2.04166
0.239696 -0.512712 -2.19561
0.480889 -0.500332 -2.32185
0.753501 -0.478565 -2.37794
1.02954 -0.455748 -2.30708
1.24512 -0.429024 -2.10221
1.37752 -0.391716 -1.79523
1.41443 -0.352907 -1.44904
1.36685 -0.309079 -1.12498
1.26751 -0.266208 -0.872576
1.16997 -0.223614 -0.705787
1.1007 -0.175172 -0.590123
1.05728 -0.138911 -0.441352
0.999373 -0.12357 -0.306061
0.697341 -0.133151 -0.00344913
0.745214 -0.126895 -0.0330745
0.716651 -0.132467 0.046718
0.823663 -0.116362 0.104997
1.01803 -0.0822776 0.24175
1.22393 -0.0404165 0.422023
1.36047 -0.011939 0.617977
1.49836 -0.00829194 0.802939
1.63487 -0.0257894 1.10288
1.69822 -0.0710504 1.44235
1.64967 -0.137216 1.72131
1.2352 -0.144278 2.05549
1.49961 -0.217899 1.88666
0.848505 -0.065425 2.05168
0.402505 -0.0229971 1.86178
0.0959752 -0.0397098 1.55934
-0.0505736 -0.0725058 1.25025
-0.092901 -0.0927328 1.05591
-0.106669 -0.0875253 0.963614
1.68002 -0.138123 1.07189
1.54655 -0.0768516 0.730596
1.70033 -0.210769 1.37428
1.61236 -0.289031 1.57647
1.2752 -0.306989 1.92477
1.4156 -0.376741 1.65981
0.987356 -0.248625 2.04488
0.616957 -0.191411 2.00553
0.246513 -0.139391 1.81063
-0.0340268 -0.109135 1.52607
-0.109985 -0.0980087 1.21562
-0.123576 -0.0941456 1.03491
-0.111755 -0.0833135 0.955471
0.852312 -0.120585 -0.0994053
0.944923 -0.122422 -0.188355
1.03503 -0.103093 -0.034043
1.21096 -0.165759 -0.19655
1.35246 -0.23431 -0.394661
1.43978 -0.299284 -0.616256
1.46626 -0.356123 -0.840141
1.44558 -0.402561 -1.04662
1.39008 -0.446651 -1.23914
1.30553 -0.487459 -1.42132
1.1905 -0.528947 -1.58808
1.05278 -0.580991 -1.72036
0.885577 -0.626236 -1.82931
0.679817 -0.644707 -1.89787
0.470917 -0.636166 -1.90898
0.262804 -0.612412 -1.86509
0.0715422 -0.581001 -1.79053
-0.209469 -0.539426 -1.53146
-0.0990201 -0.54936 -1.68438
-0.346919 -0.513185 -1.29056
-0.459173 -0.43049 -0.97033
-0.49454 -0.287783 -0.606347
-0.439261 -0.125272 -0.301769
-0.30375 -0.0494359 -0.188268
-0.269966 -0.0776412 -0.166452
-0.377476 -0.175819 -0.214534
-0.55771 -0.300018 -0.280743
-0.58867 -0.3139 -0.280758
-0.88751 -0.467582 -0.238709
-0.902891 -0.456892 -0.281798
-1.20934 -0.560865 -0.204921
-1.47867 -0.634211 -0.0794548
-1.69358 -0.700349 0.0952363
-1.88631 -0.766555 0.304048
-2.02602 -0.811541 0.539164
-2.06998 -0.82424 0.799393
-1.9864 -0.803115 1.03988
-1.78646 -0.743166 1.22017
-1.51081 -0.643995 1.32059
-1.20917 -0.534814 1.34536
-0.965705 -0.447694 1.32664
-0.782292 -0.380683 1.32566
-0.6099 -0.31799 1.35099
-0.399679 -0.241304 1.35038
0.151006 -0.0270798 1.0587
0.0735624 -0.059535 1.17532
0.181567 -0.0649989 0.971925
0.237014 -0.170531 0.948828
0.374408 -0.292423 0.925855
0.545075 -0.378312 0.844723
0.679811 -0.420651 0.698951
0.747227 -0.394062 0.514682
0.756035 -0.350213 0.315224
0.728206 -0.297771 0.16796
0.68308 -0.239502 0.0833924
0.646231 -0.203064 0.0468651
0.634525 -0.157354 0.0596436
0.658779 -0.0597743 0.0858099
0.650811 -0.108754 0.0665243
0.743436 -0.0297943 0.081036
0.884479 -0.0283102 0.0373994
-0.0702085 -0.12248 1.26585
-0.213698 -0.157017 1.28824
-0.14201 -0.0631362 0.933706
-0.128587 -0.0666168 0.927047
-0.194269 -0.0538614 0.940376
-0.160786 -0.0667743 0.947254
-0.219748 -0.0527557 0.934633
-0.240886 -0.0669472 0.955972
-0.283196 -0.0929966 1.02313
-0.358348 -0.128537 1.12866
-0.498418 -0.159445 1.21985
-0.672966 -0.206934 1.27635
-0.846275 -0.255114 1.26572
-0.983272 -0.309263 1.20543
-1.06169 -0.317082 1.19334
-1.22722 -0.27908 1.26828
-1.52584 -0.287399 1.26187
-1.83448 -0.347113 1.08081
-1.97316 -0.380576 0.770209
-1.88902 -0.365733 0.409988
-1.64002 -0.318091 0.0891831
-1.35251 -0.262702 -0.106901
-1.107 -0.258771 -0.143185
-0.958071 -0.269193 -0.165272
-0.897849 -0.293469 -0.201384
-0.828012 -0.316231 -0.296429
-0.751003 -0.339941 -0.376555
-0.680539 -0.363737 -0.443436
-0.625469 -0.384898 -0.51223
-0.575984 -0.408968 -0.58871
-0.574354 -0.441087 -0.654808
-0.60289 -0.475285 -0.756067
-0.378394 -0.537203 -1.63007
-0.506684 -0.522308 -1.38511
-0.205839 -0.551532 -1.83921
-0.0164032 -0.566252 -2.02295
0.202663 -0.574745 -2.19614
0.46941 -0.577533 -2.33982
0.770557 -0.57529 -2.39279
1.06639 -0.557858 -2.29911
1.29653 -0.52627 -2.05724
1.43096 -0.48606 -1.71456
1.45077 -0.437319 -1.34997
1.38062 -0.368338 -1.05019
1.28439 -0.294368 -0.815288
1.19424 -0.238359 -0.657586
1.12545 -0.191795 -0.54487
1.07867 -0.156877 -0.422797
1.03375 -0.138011 -0.337352
1.015 -0.131898 -0.273667
0.881761 -0.116118 -0.0954351
0.985838 -0.115567 -0.190231
0.786661 -0.123118 -0.0379701
0.712729 -0.132015 -0.0109991
0.682755 -0.138273 0.00521562
0.716276 -0.134123 0.0337761
0.860561 -0.112251 0.0978577
1.11652 -0.0793453 0.281802
1.37366 -0.0411962 0.521076
-0.594679 -0.51785 -1.1058
-0.613924 -0.502694 -0.847264
-0.117549 -0.0800521 0.947882
-0.131451 -0.0795906 0.944501
-0.188923 -0.0725857 0.960581
-0.153199 -0.074028 0.953942
-0.221063 -0.0656083 0.959945
-0.244352 -0.0671977 0.961286
-0.255624 -0.0779089 0.97249
-0.28083 -0.104205 1.00719
-0.320005 -0.143068 1.07619
-0.415592 -0.176047 1.1499
-0.550506 -0.21823 1.20594
-0.699231 -0.253031 1.22326
-0.833911 -0.278686 1.22666
-0.973685 -0.279241 1.25887
-1.19492 -0.278991 1.35817
-1.5359 -0.326976 1.37586
-1.93714 -0.427325 1.19764
-2.08464 -0.444351 0.802921
-1.98788 -0.425589 0.423505
-1.73474 -0.3578 0.0892002
-1.44694 -0.289078 -0.120509
-1.17703 -0.270814 -0.17963
-0.992509 -0.273576 -0.199723
-0.894012 -0.294713 -0.220574
-0.79875 -0.31754 -0.291472
-0.703416 -0.342785 -0.347709
-0.626377 -0.369518 -0.388097
-0.577268 -0.395869 -0.426707
-0.549251 -0.421931 -0.472382
-0.554968 -0.451674 -0.512776
-0.584219 -0.472533 -0.572542
-0.607245 -0.486119 -0.646387
-0.630068 -0.522326 -0.909952
-0.624053 -0.494421 -0.714859
-0.582955 -0.534181 -1.13158
-0.493465 -0.548959 -1.36461
-0.389753 -0.568841 -1.57753
-0.234051 -0.577925 -1.7741
-0.0540718 -0.594265 -1.95698
0.164696 -0.611159 -2.13419
0.432739 -0.626713 -2.27729
0.729624 -0.627436 -2.33027
1.02571 -0.601417 -2.24375
1.28237 -0.548858 -1.9725
1.42506 -0.506039 -1.58371
1.40789 -0.448593 -1.21652
1.32868 -0.368591 -0.970282
1.262 -0.283647 -0.769377
1.19703 -0.222736 -0.61515
1.13716 -0.179787 -0.496435
1.07959 -0.150328 -0.370818
1.07714 -0.130934 -0.317626
0.946729 -0.0910957 -0.108171
1.0732 -0.108474 -0.252304
0.808318 -0.0984754 -0.016258
0.719546 -0.116785 0.00926957
0.691233 -0.126462 0.00504253
0.666747 -0.127656 0.00500815
0.706669 -0.124067 0.016081
0.865451 -0.114887 0.0838715
1.22596 -0.123859 0.355766
1.05148 -0.0614895 -0.0555742
1.21707 -0.112791 -0.191042
1.35482 -0.182891 -0.373051
1.44586 -0.249598 -0.582276
1.47946 -0.310643 -0.800747
1.47047 -0.363575 -1.00988
1.4252 -0.414176 -1.21541
1.34228 -0.456105 -1.41749
1.24588 -0.4991 -1.5914
1.1312 -0.564918 -1.74913
0.962921 -0.626051 -1.89206
0.750511 -0.654898 -1.97631
0.532092 -0.64797 -1.99083
0.332203 -0.621266 -1.94907
0.157602 -0.592197 -1.87798
0.0323242 -0.585035 -1.80544
-0.24756 -0.545868 -1.55292
-0.055399 -0.621278 -1.76059
-0.359414 -0.504302 -1.37573
-0.450072 -0.468464 -1.13876
-0.533999 -0.397705 -0.835863
-0.525602 -0.282293 -0.516657
-0.427957 -0.166643 -0.270456
-0.316072 -0.125001 -0.174478
-0.303599 -0.151145 -0.160283
-0.405564 -0.221961 -0.220726
-0.625141 -0.319682 -0.292952
-0.924144 -0.423966 -0.316417
-1.24294 -0.512181 -0.248987
-1.5327 -0.585562 -0.116895
-1.79291 -0.659586 0.0861819
-2.01051 -0.728883 0.323799
-2.15695 -0.782404 0.583389
-2.19801 -0.80021 0.853821
-2.1114 -0.784131 1.09203
-1.90264 -0.734319 1.27485
-1.6055 -0.648773 1.3767
-1.28723 -0.535587 1.39022
-1.03513 -0.432848 1.35135
-0.82944 -0.360042 1.3354
-0.640659 -0.291999 1.3358